<VTKFile type="PolyData" version="0.1" byte_order="LittleEndian">
  <PolyData>
    <Piece NumberOfPoints="678" NumberOfVerts="0" NumberOfLines="0" NumberOfStrips="0" NumberOfPolys="226">
      <PointData Normals="Normals_" TCoords="TCoords_">
        <DataArray type="Float32" Name="TCoords_" NumberOfComponents="2" format="ascii" RangeMin="0.36261156723" RangeMax="1.7932528656">
          -0.32118800282 0.57247799635 -0.049364998937 0.56425398588 -0.32232999802 0.72471302748
          -0.049364998937 0.56425398588 -0.031385999173 0.71848899126 -0.32232999802 0.72471302748
          -0.048301000148 0.49897199869 -0.32978400588 0.49884301424 -0.046806000173 0.46172401309
          -0.32978400588 0.49884301424 -0.33612298965 0.46645399928 -0.046806000173 0.46172401309
          -0.11076299846 0.80150902271 -0.26044398546 0.80338901281 -0.32232999802 0.72471302748
          -0.11076299846 0.80150902271 -0.32232999802 0.72471302748 -0.031385999173 0.71848899126
          -0.18588599563 0.81261599064 -0.26044398546 0.80338901281 -0.11076299846 0.80150902271
          -0.32943201065 0.5399119854 -0.050142001361 0.54002201557 -0.049364998937 0.56425398588
          -0.32943201065 0.5399119854 -0.049364998937 0.56425398588 -0.32118800282 0.57247799635
          -0.0081359995529 0.61065101624 -0.014088000171 0.75415098667 -0.031385999173 0.71848899126
          -0.0081359995529 0.61065101624 -0.031385999173 0.71848899126 -0.049364998937 0.56425398588
          -0.014088000171 0.75415098667 -0.11076299846 0.80150902271 -0.031385999173 0.71848899126
          -0.028867999092 0.73302298784 -0.18278299272 0.7876920104 -0.18156500161 0.73464500904
          -0.0045920000412 0.47834300995 -0.048301000148 0.49897199869 -0.046806000173 0.46172401309
          -0.0094799995422 0.55705302954 -0.049364998937 0.56425398588 -0.050142001361 0.54002201557
          -0.050142001361 0.54002201557 -0.32943201065 0.5399119854 -0.32978400588 0.49884301424
          -0.050142001361 0.54002201557 -0.32978400588 0.49884301424 -0.048301000148 0.49897199869
          -0.0094799995422 0.55705302954 -0.050142001361 0.54002201557 -0.048301000148 0.49897199869
          -0.0094799995422 0.55705302954 -0.048301000148 0.49897199869 -0.0045920000412 0.47834300995
          -0.3285599947 0.76037400961 -0.35424500704 0.60551899672 -0.32232999802 0.72471302748
          -0.32232999802 0.72471302748 -0.35424500704 0.60551899672 -0.32118800282 0.57247799635
          -0.26044398546 0.80338901281 -0.3285599947 0.76037400961 -0.32232999802 0.72471302748
          -0.18278299272 0.7876920104 -0.32200700045 0.7369210124 -0.18156500161 0.73464500904
          -0.32978400588 0.49884301424 -0.38028499484 0.47688499093 -0.33612298965 0.46645399928
          -0.32118800282 0.57247799635 -0.37343600392 0.56432497501 -0.32943201065 0.5399119854
          -0.32943201065 0.5399119854 -0.37343600392 0.56432497501 -0.32978400588 0.49884301424
          -0.32978400588 0.49884301424 -0.37343600392 0.56432497501 -0.38028499484 0.47688499093
          -0.89832299948 -0.55319702625 -0.70025002956 -0.55847102404 -0.69530397654 -0.51805597544
          -0.89832299948 -0.55319702625 -0.69530397654 -0.51805597544 -0.90537500381 -0.51338297129
          -0.96307200193 -0.50304597616 -0.95456200838 -0.53407597542 -0.89832299948 -0.55319702625
          -0.96307200193 -0.50304597616 -0.89832299948 -0.55319702625 -0.90537500381 -0.51338297129
          -0.63050800562 -0.54544901848 -0.61555600166 -0.49949800968 -0.70025002956 -0.55847102404
          -0.70025002956 -0.55847102404 -0.61555600166 -0.49949800968 -0.69530397654 -0.51805597544
          -0.90537500381 -0.51338297129 -0.69530397654 -0.51805597544 -0.89474797249 -0.27945798635
          -0.69530397654 -0.51805597544 -0.71325200796 -0.28199499846 -0.89474797249 -0.27945798635
          -0.96307200193 -0.50304597616 -0.96540999413 -0.27838298678 -0.99022197723 -0.27453199029
          -0.90063500404 -0.11736299843 -0.99022197723 -0.27453199029 -0.96540999413 -0.27838298678
          -0.73811298609 -0.22318799794 -0.87097501755 -0.21986599267 -0.89474797249 -0.27945798635
          -0.73811298609 -0.22318799794 -0.89474797249 -0.27945798635 -0.71325200796 -0.28199499846
          -0.80365598202 -0.18600900471 -0.87097501755 -0.21986599267 -0.73811298609 -0.22318799794
          -0.96540999413 -0.27838298678 -0.96307200193 -0.50304597616 -0.90537500381 -0.51338297129
          -0.96540999413 -0.27838298678 -0.90537500381 -0.51338297129 -0.89474797249 -0.27945798635
          -0.90063500404 -0.11736299843 -0.96540999413 -0.27838298678 -0.89474797249 -0.27945798635
          -0.90063500404 -0.11736299843 -0.89474797249 -0.27945798635 -0.87097501755 -0.21986599267
          -0.79940897226 -0.081206999719 -0.90063500404 -0.11736299843 -0.87097501755 -0.21986599267
          -0.79940897226 -0.081206999719 -0.87097501755 -0.21986599267 -0.80365598202 -0.18600900471
          -0.63595300913 -0.28209400177 -0.61555600166 -0.49949800968 -0.59708297253 -0.27000498772
          -0.59708297253 -0.27000498772 -0.67648100853 -0.1306309998 -0.63595300913 -0.28209400177
          -0.61555600166 -0.49949800968 -0.63595300913 -0.28209400177 -0.69530397654 -0.51805597544
          -0.69530397654 -0.51805597544 -0.63595300913 -0.28209400177 -0.71325200796 -0.28199499846
          -0.63595300913 -0.28209400177 -0.67648100853 -0.1306309998 -0.71325200796 -0.28199499846
          -0.71325200796 -0.28199499846 -0.67648100853 -0.1306309998 -0.73811298609 -0.22318799794
          -0.67648100853 -0.1306309998 -0.79940897226 -0.081206999719 -0.73811298609 -0.22318799794
          -0.73811298609 -0.22318799794 -0.79940897226 -0.081206999719 -0.80365598202 -0.18600900471
          -0.90063500404 -0.11736299843 -0.88587701321 -0.078074000776 -0.93444502354 -0.1350390017
          -0.79940897226 -0.081206999719 -0.79803097248 -0.05528299883 -0.88587701321 -0.078074000776
          -0.79940897226 -0.081206999719 -0.88587701321 -0.078074000776 -0.90063500404 -0.11736299843
          -0.70356500149 -0.081012003124 -0.67648100853 -0.1306309998 -0.64022302628 -0.1441269964
          -0.79803097248 -0.05528299883 -0.79940897226 -0.081206999719 -0.70356500149 -0.081012003124
          -0.70356500149 -0.081012003124 -0.79940897226 -0.081206999719 -0.67648100853 -0.1306309998
          1.4646890163 0.53592598438 1.5786550045 0.49798101187 1.5959880352 0.75154197216
          1.507297039 0.44688999653 1.5786550045 0.49798101187 1.4646890163 0.53592598438
          1.4640589952 0.7650949955 1.4390560389 0.53767597675 1.4646890163 0.53592598438
          1.4640589952 0.7650949955 1.4646890163 0.53592598438 1.5959880352 0.75154197216
          1.4647779465 0.85902702808 1.4640589952 0.7650949955 1.5959880352 0.75154197216
          1.4647779465 0.85902702808 1.5959880352 0.75154197216 1.555629015 0.87336802483
          1.4390560389 0.53767597675 1.4531689882 0.47642698884 1.507297039 0.44688999653
          1.4390560389 0.53767597675 1.507297039 0.44688999653 1.4646890163 0.53592598438
          1.5403660536 0.90480202436 1.4599369764 0.89682197571 1.4647779465 0.85902702808
          1.5403660536 0.90480202436 1.4647779465 0.85902702808 1.555629015 0.87336802483
          1.4714250565 0.87781697512 1.4593449831 0.87964200974 1.4639650583 0.91454702616
          1.4714250565 0.87781697512 1.4639650583 0.91454702616 1.4798779488 0.88085401058
          1.4593449831 0.87964200974 1.5457550287 0.88834398985 1.5356630087 0.91914600134
          1.4593449831 0.87964200974 1.5356630087 0.91914600134 1.4639650583 0.91454702616
          1.5786010027 0.49779298902 1.4643239975 0.5350009799 1.5965600014 0.751504004
          1.5786010027 0.49779298902 1.506477952 0.44851499796 1.4643239975 0.5350009799
          1.4387580156 0.53757101297 1.4641280174 0.76491302252 1.4643239975 0.5350009799
          1.4643239975 0.5350009799 1.4641280174 0.76491302252 1.5965600014 0.751504004
          1.4641280174 0.76491302252 1.4643549919 0.85767602921 1.5965600014 0.751504004
          1.5965600014 0.751504004 1.4643549919 0.85767602921 1.5547300577 0.85900700092
          1.4534169436 0.47606599331 1.4387580156 0.53757101297 1.506477952 0.44851499796
          1.506477952 0.44851499796 1.4387580156 0.53757101297 1.4643239975 0.5350009799
          1.4606449604 0.90276902914 1.5338640213 0.91173797846 1.4643549919 0.85767602921
          1.4643549919 0.85767602921 1.5338640213 0.91173797846 1.5547300577 0.85900700092
          1.4619530439 0.87789398432 1.4601080418 0.89366900921 1.4629540443 0.90932399035
          1.4629540443 0.90932399035 1.4601080418 0.89366900921 1.4548089504 0.89315599203
          1.5417250395 0.88597798347 1.4619530439 0.87789398432 1.5321309566 0.91797399521
          1.5321309566 0.91797399521 1.4619530439 0.87789398432 1.4629540443 0.90932399035
          1.0356390476 0.74294501543 1.0339339972 0.72025197744 1.0712679625 0.71644699574
          1.0356390476 0.74294501543 1.0712679625 0.71644699574 1.0714919567 0.74153399467
          1.0339339972 0.72025197744 1.0312429667 0.69952702522 1.0689740181 0.69419002533
          1.0339339972 0.72025197744 1.0689740181 0.69419002533 1.0712679625 0.71644699574
          1.0312429667 0.69952702522 1.0323679447 0.68054002523 1.0644619465 0.67721402645
          1.0312429667 0.69952702522 1.0644619465 0.67721402645 1.0689740181 0.69419002533
          1.0363949537 0.77240800858 1.0356390476 0.74294501543 1.0714919567 0.74153399467
          1.0363949537 0.77240800858 1.0714919567 0.74153399467 1.0733139515 0.770852983
          0.81541198492 0.88259500265 0.81507200003 0.90466099977 0.68140900135 0.90248602629
          0.81541198492 0.88259500265 0.68140900135 0.90248602629 0.68222498894 0.88203400373
          0.81507200003 0.90466099977 0.81504899263 0.93685001135 0.68160998821 0.93852698803
          0.81507200003 0.90466099977 0.68160998821 0.93852698803 0.68140900135 0.90248602629
          0.81504899263 0.93685001135 0.81504899263 0.95934700966 0.68166899681 0.96333402395
          0.81504899263 0.93685001135 0.68166899681 0.96333402395 0.68160998821 0.93852698803
          0.81504899263 0.86965698004 0.81541198492 0.88259500265 0.68222498894 0.88203400373
          0.81504899263 0.86965698004 0.68222498894 0.88203400373 0.68244999647 0.87130701542
          1.0339870453 0.71979302168 1.0310980082 0.69922500849 1.070876956 0.71633899212
          1.070876956 0.71633899212 1.0310980082 0.69922500849 1.0686600208 0.69337701797
          1.0358550549 0.74238598347 1.0339870453 0.71979302168 1.0715010166 0.74149799347
          1.0715010166 0.74149799347 1.0339870453 0.71979302168 1.070876956 0.71633899212
          1.0364630222 0.77230900526 1.0358550549 0.74238598347 1.0731829405 0.77101701498
          1.0731829405 0.77101701498 1.0358550549 0.74238598347 1.0715010166 0.74149799347
          1.0310980082 0.69922500849 1.0321179628 0.67996799946 1.0686600208 0.69337701797
          1.0686600208 0.69337701797 1.0321179628 0.67996799946 1.0647929907 0.67668902874
          0.81507200003 0.90466099977 0.81541198492 0.88259500265 0.95958799124 0.90481597185
          0.95958799124 0.90481597185 0.81541198492 0.88259500265 0.96009999514 0.88143599033
          0.81504899263 0.93685001135 0.81507200003 0.90466099977 0.95993500948 0.93597197533
          0.95993500948 0.93597197533 0.81507200003 0.90466099977 0.95958799124 0.90481597185
          0.81504899263 0.95934700966 0.81504899263 0.93685001135 0.96002101898 0.96211200953
          0.96002101898 0.96211200953 0.81504899263 0.93685001135 0.95993500948 0.93597197533
          0.81541198492 0.88259500265 0.81504899263 0.86965698004 0.96009999514 0.88143599033
          0.96009999514 0.88143599033 0.81504899263 0.86965698004 0.95924001932 0.86764502525
          0.28478598595 0.38278898597 0.24039100111 0.37898498774 0.28478598595 0.35161098838
          0.27234700322 0.3408460021 0.28478598595 0.35161098838 0.24039100111 0.37898498774
          0.24538999796 0.33527800441 0.27234700322 0.3408460021 0.24039100111 0.37898498774
          0.24039100111 0.37898498774 0.19551900029 0.3788459897 0.20265500247 0.34798300266
          0.20265500247 0.34798300266 0.21743099391 0.33842000365 0.24039100111 0.37898498774
          0.21743099391 0.33842000365 0.24538999796 0.33527800441 0.24039100111 0.37898498774
          0.20647199452 0.29808801413 0.23272399604 0.29134899378 0.26097100973 0.29326200485
          0.19551900029 0.30945700407 0.26097100973 0.29326200485 0.27662301064 0.302275002
          0.20647199452 0.29808801413 0.26097100973 0.29326200485 0.19551900029 0.30945700407
          0.19551900029 0.30945700407 0.24271400273 0.33480000496 0.19883300364 0.34044599533
          0.24271400273 0.33480000496 0.27662301064 0.302275002 0.28744500875 0.33259901404
          0.19551900029 0.30945700407 0.27662301064 0.302275002 0.24271400273 0.33480000496
          -0.14914500713 -0.59346997738 -0.14604699612 -0.65843898058 -0.014251000248 -0.65839499235
          -0.14914500713 -0.59346997738 -0.014251000248 -0.65839499235 -0.018257999793 -0.59284299612
          -0.14497099817 -0.80604797602 -0.14498199522 -0.86888897419 -0.0058880001307 -0.86976599693
          -0.14497099817 -0.80604797602 -0.0058880001307 -0.86976599693 -0.0084279999137 -0.80646300316
          -0.14604699612 -0.65843898058 -0.14619000256 -0.73616200686 -0.0096110003069 -0.73531401157
          -0.14604699612 -0.65843898058 -0.0096110003069 -0.73531401157 -0.014251000248 -0.65839499235
          -0.14619000256 -0.73616200686 -0.14497099817 -0.80604797602 -0.0084279999137 -0.80646300316
          -0.14619000256 -0.73616200686 -0.0084279999137 -0.80646300316 -0.0096110003069 -0.73531401157
          -0.30065199733 -0.59427201748 -0.29722499847 -0.65878999233 -0.14604699612 -0.65843898058
          -0.30065199733 -0.59427201748 -0.14604699612 -0.65843898058 -0.14914500713 -0.59346997738
          -0.29219999909 -0.80542498827 -0.29125800729 -0.86923897266 -0.14498199522 -0.86888897419
          -0.29219999909 -0.80542498827 -0.14498199522 -0.86888897419 -0.14497099817 -0.80604797602
          -0.29722499847 -0.65878999233 -0.29464700818 -0.73457700014 -0.14619000256 -0.73616200686
          -0.29722499847 -0.65878999233 -0.14619000256 -0.73616200686 -0.14604699612 -0.65843898058
          -0.29464700818 -0.73457700014 -0.29219999909 -0.80542498827 -0.14497099817 -0.80604797602
          -0.29464700818 -0.73457700014 -0.14497099817 -0.80604797602 -0.14619000256 -0.73616200686
          -0.48741900921 -0.59359198809 -0.48535999656 -0.65791898966 -0.29722499847 -0.65878999233
          -0.48741900921 -0.59359198809 -0.29722499847 -0.65878999233 -0.30065199733 -0.59427201748
          -0.48359400034 -0.8038470149 -0.48415398598 -0.86933201551 -0.29125800729 -0.86923897266
          -0.48359400034 -0.8038470149 -0.29125800729 -0.86923897266 -0.29219999909 -0.80542498827
          -0.48535999656 -0.65791898966 -0.48427700996 -0.73450398445 -0.29464700818 -0.73457700014
          -0.48535999656 -0.65791898966 -0.29464700818 -0.73457700014 -0.29722499847 -0.65878999233
          -0.48427700996 -0.73450398445 -0.48359400034 -0.8038470149 -0.29219999909 -0.80542498827
          -0.48427700996 -0.73450398445 -0.29219999909 -0.80542498827 -0.29464700818 -0.73457700014
          -0.64036798477 -0.59788101912 -0.64059102535 -0.65767300129 -0.48535999656 -0.65791898966
          -0.64036798477 -0.59788101912 -0.48535999656 -0.65791898966 -0.48741900921 -0.59359198809
          -0.6412230134 -0.80472797155 -0.64036697149 -0.86937201023 -0.48415398598 -0.86933201551
          -0.6412230134 -0.80472797155 -0.48415398598 -0.86933201551 -0.48359400034 -0.8038470149
          -0.64059102535 -0.65767300129 -0.64125597477 -0.73552799225 -0.48427700996 -0.73450398445
          -0.64059102535 -0.65767300129 -0.48427700996 -0.73450398445 -0.48535999656 -0.65791898966
          -0.64125597477 -0.73552799225 -0.6412230134 -0.80472797155 -0.48359400034 -0.8038470149
          -0.64125597477 -0.73552799225 -0.48359400034 -0.8038470149 -0.48427700996 -0.73450398445
          -0.77172499895 -0.59336000681 -0.76909697056 -0.66970801353 -0.64059102535 -0.65767300129
          -0.77172499895 -0.59336000681 -0.64059102535 -0.65767300129 -0.64036798477 -0.59788101912
          -0.7710340023 -0.86987799406 -0.64036697149 -0.86937201023 -0.6412230134 -0.80472797155
          -0.76909697056 -0.66970801353 -0.76884901524 -0.73149800301 -0.64125597477 -0.73552799225
          -0.76909697056 -0.66970801353 -0.64125597477 -0.73552799225 -0.64059102535 -0.65767300129
          -0.76884901524 -0.73149800301 -0.7710340023 -0.86987799406 -0.6412230134 -0.80472797155
          -0.76884901524 -0.73149800301 -0.6412230134 -0.80472797155 -0.64125597477 -0.73552799225
          -0.7710340023 -0.86987799406 -0.76884901524 -0.73149800301 -1.0003960133 -0.73699402809
          -0.77172499895 -0.59336000681 -0.99631398916 -0.58062702417 -1.0001369715 -0.62055802345
          -0.76884901524 -0.73149800301 -0.76909697056 -0.66970801353 -0.99979197979 -0.65828299522
          -0.76884901524 -0.73149800301 -0.99979197979 -0.65828299522 -1.0003960133 -0.73699402809
          -0.76909697056 -0.66970801353 -0.77172499895 -0.59336000681 -1.0001369715 -0.62055802345
          -0.76909697056 -0.66970801353 -1.0001369715 -0.62055802345 -0.99979197979 -0.65828299522
          -0.68972098827 1.066740036 -0.69084101915 1.1348429918 -0.86892598867 1.0660239458
          -0.86892598867 1.0660239458 -0.69084101915 1.1348429918 -0.86342698336 1.1330569983
          -0.69084101915 1.1348429918 -0.69165897369 1.1961100101 -0.86342698336 1.1330569983
          -0.86342698336 1.1330569983 -0.69165897369 1.1961100101 -0.86400002241 1.2012310028
          -0.69533598423 1.2656220198 -0.69710701704 1.3357340097 -0.86218899488 1.2629419565
          -0.86218899488 1.2629419565 -0.69710701704 1.3357340097 -0.8610150218 1.3379160166
          -0.69165897369 1.1961100101 -0.69533598423 1.2656220198 -0.86400002241 1.2012310028
          -0.86400002241 1.2012310028 -0.69533598423 1.2656220198 -0.86218899488 1.2629419565
          -0.52077102661 1.0645860434 -0.5182480216 1.1326789856 -0.68972098827 1.066740036
          -0.68972098827 1.066740036 -0.5182480216 1.1326789856 -0.69084101915 1.1348429918
          -0.5182480216 1.1326789856 -0.52550399303 1.1983059645 -0.69084101915 1.1348429918
          -0.69084101915 1.1348429918 -0.52550399303 1.1983059645 -0.69165897369 1.1961100101
          -0.52996701002 1.2650549412 -0.52914500237 1.3360179663 -0.69533598423 1.2656220198
          -0.69533598423 1.2656220198 -0.52914500237 1.3360179663 -0.69710701704 1.3357340097
          -0.52550399303 1.1983059645 -0.52996701002 1.2650549412 -0.69165897369 1.1961100101
          -0.69165897369 1.1961100101 -0.52996701002 1.2650549412 -0.69533598423 1.2656220198
          -0.35979700089 1.0670150518 -0.36291599274 1.1317540407 -0.52077102661 1.0645860434
          -0.52077102661 1.0645860434 -0.36291599274 1.1317540407 -0.5182480216 1.1326789856
          -0.36291599274 1.1317540407 -0.36344501376 1.1946530342 -0.5182480216 1.1326789856
          -0.5182480216 1.1326789856 -0.36344501376 1.1946530342 -0.52550399303 1.1983059645
          -0.36439400911 1.2677509785 -0.37485700846 1.3438609838 -0.52996701002 1.2650549412
          -0.52996701002 1.2650549412 -0.37485700846 1.3438609838 -0.52914500237 1.3360179663
          -0.36344501376 1.1946530342 -0.36439400911 1.2677509785 -0.52550399303 1.1983059645
          -0.52550399303 1.1983059645 -0.36439400911 1.2677509785 -0.52996701002 1.2650549412
          -0.22186900675 1.0704729557 -0.22419899702 1.1304789782 -0.35979700089 1.0670150518
          -0.35979700089 1.0670150518 -0.22419899702 1.1304789782 -0.36291599274 1.1317540407
          -0.22419899702 1.1304789782 -0.22752800584 1.1905460358 -0.36291599274 1.1317540407
          -0.36291599274 1.1317540407 -0.22752800584 1.1905460358 -0.36344501376 1.1946530342
          -0.22811999917 1.2677400112 -0.23969000578 1.3377729654 -0.36439400911 1.2677509785
          -0.36439400911 1.2677509785 -0.23969000578 1.3377729654 -0.37485700846 1.3438609838
          -0.22752800584 1.1905460358 -0.22811999917 1.2677400112 -0.36344501376 1.1946530342
          -0.36344501376 1.1946530342 -0.22811999917 1.2677400112 -0.36439400911 1.2677509785
          -0.076697997749 1.0801090002 -0.073209002614 1.1458480358 -0.22186900675 1.0704729557
          -0.22186900675 1.0704729557 -0.073209002614 1.1458480358 -0.22419899702 1.1304789782
          -0.22419899702 1.1304789782 -0.073209002614 1.1458480358 -0.22752800584 1.1905460358
          -0.084173001349 1.2677719593 -0.078897997737 1.335392952 -0.22811999917 1.2677400112
          -0.22811999917 1.2677400112 -0.078897997737 1.335392952 -0.23969000578 1.3377729654
          -0.073209002614 1.1458480358 -0.084173001349 1.2677719593 -0.22752800584 1.1905460358
          -0.22752800584 1.1905460358 -0.084173001349 1.2677719593 -0.22811999917 1.2677400112
          -0.084173001349 1.2677719593 -0.073209002614 1.1458480358 0.1380520016 1.2625219822
          0.1380520016 1.2625219822 -0.073209002614 1.1458480358 0.13928599656 1.1460609436
          -0.078897997737 1.335392952 -0.084173001349 1.2677719593 0.13720400631 1.3394839764
          0.13720400631 1.3394839764 -0.084173001349 1.2677719593 0.1380520016 1.2625219822
          -0.073209002614 1.1458480358 -0.076697997749 1.0801090002 0.13928599656 1.1460609436
          0.13928599656 1.1460609436 -0.076697997749 1.0801090002 0.13978299499 1.0669560432
          1.5464299917 0.89468801022 1.5424070358 0.91228997707 1.52760005 0.92619401217
          1.5464299917 0.89468801022 1.52760005 0.92619401217 1.554708004 0.85952401161
          1.5455349684 0.90943801403 1.5459020138 0.8974339962 1.5346120596 0.91919201612
          1.5346120596 0.91919201612 1.5459020138 0.8974339962 1.5468549728 0.87344902754
        </DataArray>
        <DataArray type="Float32" Name="Normals_" NumberOfComponents="3" format="ascii" RangeMin="0.39370020485" RangeMax="0.39370137242">
          0.33968600631 -0.1697230041 -0.10395999998 0.35201901197 -0.14520999789 0.099983997643
          0.38969299197 0.0037930000108 0.055904000998 0.35201901197 -0.14520999789 0.099983997643
          0.38821300864 0.0089309997857 -0.064892999828 0.38969299197 0.0037930000108 0.055904000998
          0.084023997188 -0.3798699975 -0.060327000916 0.082819998264 -0.38231500983 0.044456999749
          -0.17875799537 -0.3369410038 -0.097552999854 0.082819998264 -0.38231500983 0.044456999749
          -0.18176500499 -0.32442200184 0.12927499413 -0.17875799537 -0.3369410038 -0.097552999854
          0.39120298624 -0.044250000268 -0.0015010000207 0.39024499059 -0.050785001367 0.011392000131
          0.38969299197 0.0037930000108 0.055904000998 0.39120298624 -0.044250000268 -0.0015010000207
          0.38969299197 0.0037930000108 0.055904000998 0.38821300864 0.0089309997857 -0.064892999828
          0.39305400848 0.022149000317 0.0042610000819 0.39024499059 -0.050785001367 0.011392000131
          0.39120298624 -0.044250000268 -0.0015010000207 0.27943399549 -0.27728798985 0.0053380001336
          0.24734799564 -0.30629900098 0.00045299998601 0.35201901197 -0.14520999789 0.099983997643
          0.27943399549 -0.27728798985 0.0053380001336 0.35201901197 -0.14520999789 0.099983997643
          0.33968600631 -0.1697230041 -0.10395999998 0.22140899301 0.070487998426 -0.31782001257
          0.11459500343 0.098044000566 -0.36366999149 0.38821300864 0.0089309997857 -0.064892999828
          0.22140899301 0.070487998426 -0.31782001257 0.38821300864 0.0089309997857 -0.064892999828
          0.35201901197 -0.14520999789 0.099983997643 0.11459500343 0.098044000566 -0.36366999149
          0.39120298624 -0.044250000268 -0.0015010000207 0.38821300864 0.0089309997857 -0.064892999828
          -0.044158998877 0.276560992 -0.27670300007 0.39330500364 -0.017140999436 0.0042460002005
          0.39305400848 0.022149000317 0.0042610000819 -0.0063499999233 -0.25185701251 -0.30253601074
          0.084023997188 -0.3798699975 -0.060327000916 -0.17875799537 -0.3369410038 -0.097552999854
          0.14533400536 -0.29412600398 -0.21764199436 0.35201901197 -0.14520999789 0.099983997643
          0.24734799564 -0.30629900098 0.00045299998601 0.24734799564 -0.30629900098 0.00045299998601
          0.27943399549 -0.27728798985 0.0053380001336 0.082819998264 -0.38231500983 0.044456999749
          0.24734799564 -0.30629900098 0.00045299998601 0.082819998264 -0.38231500983 0.044456999749
          0.084023997188 -0.3798699975 -0.060327000916 0.14533400536 -0.29412600398 -0.21764199436
          0.24734799564 -0.30629900098 0.00045299998601 0.084023997188 -0.3798699975 -0.060327000916
          0.14533400536 -0.29412600398 -0.21764199436 0.084023997188 -0.3798699975 -0.060327000916
          -0.0063499999233 -0.25185701251 -0.30253601074 0.098272003233 0.098567999899 0.36827600002
          0.20422099531 0.071114003658 0.32899400592 0.38969299197 0.0037930000108 0.055904000998
          0.38969299197 0.0037930000108 0.055904000998 0.20422099531 0.071114003658 0.32899400592
          0.33968600631 -0.1697230041 -0.10395999998 0.39024499059 -0.050785001367 0.011392000131
          0.098272003233 0.098567999899 0.36827600002 0.38969299197 0.0037930000108 0.055904000998
          0.39330500364 -0.017140999436 0.0042460002005 -0.057057999074 0.27633500099 0.27456098795
          0.39305400848 0.022149000317 0.0042610000819 0.082819998264 -0.38231500983 0.044456999749
          -0.020085999742 -0.25211700797 0.3017179966 -0.18176500499 -0.32442200184 0.12927499413
          0.33968600631 -0.1697230041 -0.10395999998 0.13616399467 -0.29385700822 0.22384800017
          0.27943399549 -0.27728798985 0.0053380001336 0.27943399549 -0.27728798985 0.0053380001336
          0.13616399467 -0.29385700822 0.22384800017 0.082819998264 -0.38231500983 0.044456999749
          0.082819998264 -0.38231500983 0.044456999749 0.13616399467 -0.29385700822 0.22384800017
          -0.020085999742 -0.25211700797 0.3017179966 -0.17875799537 -0.3369410038 -0.097552999854
          -0.18176500499 -0.32442200184 0.12927499413 -0.37443599105 -0.077639997005 0.093648001552
          -0.17875799537 -0.3369410038 -0.097552999854 -0.37443599105 -0.077639997005 0.093648001552
          -0.3611010015 -0.065909996629 -0.14234399796 -0.19322299957 -0.069968000054 -0.33581200242
          -0.0063499999233 -0.25185701251 -0.30253601074 -0.17875799537 -0.3369410038 -0.097552999854
          -0.19322299957 -0.069968000054 -0.33581200242 -0.17875799537 -0.3369410038 -0.097552999854
          -0.3611010015 -0.065909996629 -0.14234399796 -0.020085999742 -0.25211700797 0.3017179966
          -0.2066539973 -0.069531001151 0.32781100273 -0.18176500499 -0.32442200184 0.12927499413
          -0.18176500499 -0.32442200184 0.12927499413 -0.2066539973 -0.069531001151 0.32781100273
          -0.37443599105 -0.077639997005 0.093648001552 -0.3611010015 -0.065909996629 -0.14234399796
          -0.37443599105 -0.077639997005 0.093648001552 -0.3802460134 0.071786999702 -0.07252600044
          -0.37443599105 -0.077639997005 0.093648001552 -0.37425899506 0.082171998918 0.090433999896
          -0.3802460134 0.071786999702 -0.07252600044 -0.19322299957 -0.069968000054 -0.33581200242
          -0.30403700471 0.092517003417 -0.23238399625 0.34993699193 0.038081999868 -0.17633500695
          -0.18596799672 0.24529099464 -0.2454559952 0.34993699193 0.038081999868 -0.17633500695
          -0.30403700471 0.092517003417 -0.23238399625 -0.37153300643 0.12037400156 0.049736998975
          -0.36305698752 0.13603000343 -0.06845100224 -0.3802460134 0.071786999702 -0.07252600044
          -0.37153300643 0.12037400156 0.049736998975 -0.3802460134 0.071786999702 -0.07252600044
          -0.37425899506 0.082171998918 0.090433999896 -0.35427701473 0.17169299722 -0.0030859999824
          -0.36305698752 0.13603000343 -0.06845100224 -0.37153300643 0.12037400156 0.049736998975
          -0.30403700471 0.092517003417 -0.23238399625 -0.19322299957 -0.069968000054 -0.33581200242
          -0.3611010015 -0.065909996629 -0.14234399796 -0.30403700471 0.092517003417 -0.23238399625
          -0.3611010015 -0.065909996629 -0.14234399796 -0.3802460134 0.071786999702 -0.07252600044
          -0.18596799672 0.24529099464 -0.2454559952 -0.30403700471 0.092517003417 -0.23238399625
          -0.3802460134 0.071786999702 -0.07252600044 -0.18596799672 0.24529099464 -0.2454559952
          -0.3802460134 0.071786999702 -0.07252600044 -0.36305698752 0.13603000343 -0.06845100224
          -0.29949700832 0.25552800298 -0.0026140001137 -0.18596799672 0.24529099464 -0.2454559952
          -0.36305698752 0.13603000343 -0.06845100224 -0.29949700832 0.25552800298 -0.0026140001137
          -0.36305698752 0.13603000343 -0.06845100224 -0.35427701473 0.17169299722 -0.0030859999824
          -0.31162899733 0.091476999223 0.22253000736 -0.2066539973 -0.069531001151 0.32781100273
          0.30259999633 0.044883001596 0.24782900512 0.30259999633 0.044883001596 0.24782900512
          -0.041184999049 0.28193598986 0.27169200778 -0.31162899733 0.091476999223 0.22253000736
          -0.2066539973 -0.069531001151 0.32781100273 -0.31162899733 0.091476999223 0.22253000736
          -0.37443599105 -0.077639997005 0.093648001552 -0.37443599105 -0.077639997005 0.093648001552
          -0.31162899733 0.091476999223 0.22253000736 -0.37425899506 0.082171998918 0.090433999896
          -0.31162899733 0.091476999223 0.22253000736 -0.041184999049 0.28193598986 0.27169200778
          -0.37425899506 0.082171998918 0.090433999896 -0.37425899506 0.082171998918 0.090433999896
          -0.041184999049 0.28193598986 0.27169200778 -0.37153300643 0.12037400156 0.049736998975